# Cu3BHT Stacking AA

         15  atoms
          3  atom types

     0.000000000000       8.658944640366  xlo xhi
     0.000000000000       7.522840153334  ylo yhi
     0.000000000000       3.183817710818  zlo zhi
     4.324263184156      -0.016658943914       1.195978650157  xy xz yz

Masses

           1   32.06000000             # S
           2   12.01100000             # C
           3   63.54600000             # Cu

Atoms # atomic

        1    1        2.685219151231       2.756848718319       3.086389546271
        2    1       -0.016421182584       4.318043159518       2.928992353655
        3    1        1.622385405191       5.961969968742       0.097428154995
        4    1        4.324025167287       4.400775858548       0.254825347611
        5    1       -1.632484723860       5.968322485901       0.201312927301
        6    1        5.940089029333       2.750496404121       2.982504713473
        7    2        1.202400255633       1.903207930898       3.165300971677
        8    2       -0.016965787714       2.611483016084       3.108033090862
        9    2        3.105204041148       6.815610961516       0.018516675465
       10    2        4.324570097488       6.107335868807       0.075784556280
       11    2       -3.114462795127       6.817840332500       0.060685661976
       12    2        7.422067005333       1.900978401587       3.123132004268
       13    3        4.329472320183      -0.000000000000       0.000000000000
       14    3       -2.167340728105       3.761420076667      -0.000000000000
       15    3        2.162131592078       3.761420076667      -0.000000000000
