# XCrySDen XSF file

         60  atoms
          3  atom types

     0.000000000000      14.784828926541  xlo xhi
     0.000000000000       8.606061793773  ylo yhi
     0.000000000000       6.487807395451  zlo zhi
     0.000000000000       0.046856821923       0.000000000000  xy xz yz

Masses

           1   32.06000000             # S
           2   12.01100000             # C
           3   63.54600000             # Cu

Atoms # atomic

        1    1        0.582801531083       1.354204982461       2.231558616941
        2    1       14.225455806420       5.657235879348       1.012345080784
        3    1       14.248884217381       7.251856811311       4.256248778510
        4    1        0.606229942045       2.948825914425       5.475462314667
        5    1        2.126634083067       4.054659879616       2.230977599443
        6    1       12.681623269220       8.357690776502       1.012926098282
        7    1       12.705051680135       4.551401914157       4.256829789520
        8    1        2.150062494029       0.248371017270       5.474881297169
        9    1        2.161434049882       7.235313295837       2.210233269251
       10    1       12.646823287620       2.932282398951       1.033670428475
       11    1       12.670251698582       1.370748497935       4.277574126200
       12    1        2.184862460844       5.673779394822       5.454136966976
       13    1        5.300125189162       4.055482935287       2.225156914975
       14    1        9.508132148341       8.358513832174       1.018746782750
       15    1        9.531560559302       4.550578858486       4.262650480476
       16    1        5.323553600123       0.247547961599       5.469060612701
       17    1        6.842656108346       1.350546483684       2.230705804838
       18    1        7.965601229156       5.653577380570       1.013197892888
       19    1        7.989029640118       7.255515310089       4.257101590613
       20    1        6.866084519308       2.952484413203       5.474609502563
       21    1        5.259445967982       7.237615965704       2.163521859838
       22    1        9.548811369521       2.934585068818       1.080381837888
       23    1        9.572239780436       1.368445828069       4.324285529125
       24    1        5.282874378943       5.671476724955       5.407425557563
       25    2        3.007274418987       2.572433807452       2.201707359678
       26    2       11.800982918516       6.875464704339       1.042196338047
       27    2       11.824411329477       6.033627986320       4.286100035773
       28    2        3.030702829949       1.730597089434       5.445611057404
       29    2        2.310519441177       1.348130211041       2.200383303467
       30    2       12.497737896326       5.651161107928       1.043520394258
       31    2       12.521166307288       7.257931582732       4.287424091984
       32    2        2.333947852138       2.954900685845       5.444287001193
       33    2        3.006724809411       0.126475043206       2.193645957716
       34    2       11.801532528092       4.429505940092       1.050257740009
       35    2       11.824960939053       8.479586750567       4.294161437735
       36    2        3.030153220373       4.176555853681       5.437549655442
       37    2        4.415400519931       0.127328335451       2.185042780362
       38    2       10.392856817572       4.430359232338       1.058860917363
       39    2       10.416285228487       8.478733458322       4.302764608601
       40    2        4.438828930892       4.175702561435       5.428946478088
       41    2        5.114151124889       1.347862445850       2.194838065552
       42    2        9.694106212614       5.650893342736       1.049065632174
       43    2        9.717534623576       7.258199347923       4.292969329899
       44    2        5.137579535850       2.955168451036       5.438741763278
       45    2        4.419093744095       2.572825700300       2.200243414183
       46    2       10.389163593407       6.875856597186       1.043660283542
       47    2       10.412592004322       6.033236093473       4.287563974780
       48    2        4.442522155057       1.730205196587       5.444147111909
       49    3        0.071161603028       3.443919830375       1.317139556789
       50    3       14.737095734475       7.746950727261       1.926764140936
       51    3       14.760524145437       5.162141963398       5.170667838662
       52    3        0.094590013989       0.859111066511       4.561043254515
       53    3        3.710115049596       5.636867275641       2.097485715071
       54    3       11.098142287906       1.333836378754       1.146417982654
       55    3       11.121570698868       2.969194518132       4.390321680380
       56    3        3.733543460558       7.272225415018       5.341389412797
       57    3        7.490478918921       5.165063048254       5.162829003513
       58    3        7.364635240505       0.862032151367       4.568882089663
       59    3        7.341206829544       3.440998745519       1.324978391938
       60    3        7.467050507959       7.744029642406       1.918925305788
